% Model:              Transitorio.mph
% Version:            COMSOL 6.2.0.290
% Date:               Mar 10 2025, 14:55
% Table:              Table 17 - 
% Time (s)                                        Total heat flux magnitude (W/m^2), Point: (2, 0, 0)
0                                                 3.49964736310204E-8
10                                                7.470983167238669E-9
20                                                8.327393841112462E-9
30                                                9.144262311800607E-9
40                                                1.2651130923693142E-7
50                                                4.2233439810528405E-6
60                                                5.990033334261405E-5
70                                                8.81687735368607E-4
80                                                0.005629723653076009
90                                                0.022636831079949418
100                                               0.07110102097132312
110                                               0.18760890817617398
120                                               0.433486871058622
130                                               0.9010817476339754
140                                               1.7903229685968693
150                                               3.2593705564128963
160                                               5.505366320876446
170                                               8.64857500096113
180                                               12.960971241014361
190                                               18.608601979298747
200                                               25.838511471134474
210                                               34.804029664223506
220                                               45.713632296238636
230                                               58.688028411648794
240                                               73.87352411918164
250                                               91.34967430385264
260                                               111.188114695984
270                                               133.42848234763707
280                                               157.98860317337127
290                                               184.8564862726983
300                                               214.0434625205707
310                                               245.54953197093297
320                                               279.00850797846624
330                                               314.4875334942119
340                                               352.0803945061888
350                                               391.7870910494323
360                                               432.92940930015953
370                                               475.67217675444437
380                                               520.1642282592143
390                                               566.4055638348149
400                                               613.5586669241238
410                                               661.8736830052551
420                                               711.5057271982361
430                                               762.4547995082022
440                                               813.8549125244463
450                                               866.0097566455582
460                                               919.0519561134611
470                                               972.981510929761
480                                               1027.0006760426543
490                                               1081.4280824921707
500                                               1136.3619021093748
510                                               1191.802134891264
520                                               1247.0730530111514
530                                               1302.4754658050942
540                                               1358.0734099452413
550                                               1413.8668854363923
560                                               1469.321333116713
570                                               1524.6977256195653
580                                               1580.0324682284668
590                                               1635.3255609444839
600                                               1690.018201525251
610                                               1744.4058655483532
620                                               1798.5125419070562
630                                               1852.3382305907862
640                                               1905.8829316049419
650                                               1959.1466449411953
660                                               2012.1293706039705
670                                               2064.829780055106
680                                               2116.904479984139
690                                               2168.6208901815676
700                                               2219.979010651989
710                                               2270.9788413970587
720                                               2321.620382410783
730                                               2371.9036336888657
740                                               2421.8285952396177
750                                               2471.382044347365
760                                               2520.339914835633
770                                               2568.884220004018
780                                               2617.014959848291
790                                               2664.732134367434
800                                               2712.0357435620817
810                                               2758.925787431383
820                                               2805.4022659745556
830                                               2851.4677234806018
840                                               2897.142209253673
850                                               2942.4086093512906
860                                               2987.266923771172
870                                               3031.7171525126505
880                                               3075.7592955829086
890                                               3119.393352972004
900                                               3162.619324684084
910                                               3205.4656129345603
920                                               3248.0658409065904
930                                               3290.2989976331196
940                                               3332.165083110576
950                                               3373.6640973369804
960                                               3414.7960403181823
970                                               3455.5609120444465
980                                               3495.958712523233
990                                               3536.039797270623
1000                                              3575.959575672695
1010                                              3615.5667952186927
1020                                              3654.8614559067855
1030                                              3693.843557738276
1040                                              3732.513100709803
1050                                              3770.870084825819
1060                                              3808.914510081427
1070                                              3846.709248666891
1080                                              3884.3866443185825
1090                                              3921.805771603589
1100                                              3958.966630527991
1110                                              3995.8692210916333
1120                                              4032.513543288128
1130                                              4068.899597123578
1140                                              4105.027382597852
1150                                              4140.962747404309
1160                                              4176.8009306498025
1170                                              4212.428032295437
1180                                              4247.844052341118
1190                                              4283.048990788314
1200                                              4318.042847635373
1210                                              4352.82562287909
1220                                              4387.397316528748
1230                                              4421.849592507313
1240                                              4456.271699713797
1250                                              4490.538756538958
1260                                              4524.650762984304
1270                                              4558.607719046659
1280                                              4592.409624736903
1290                                              4626.056480039379
1300                                              4659.548284966525
1310                                              4692.8850395104955
1320                                              4726.066743672807
1330                                              4759.093397459664
1340                                              4791.965000863221
1350                                              4824.681553886562
1360                                              4857.243056528091
1370                                              4889.649508787771
1380                                              4921.900910671813
1390                                              4954.096783522424
1400                                              4986.253936300184
1410                                              5018.280161864139
1420                                              5050.17546020802
1430                                              5081.939831334927
1440                                              5113.573275240152
1450                                              5145.075791928355
1460                                              5176.447381401077
1470                                              5207.688043653613
1480                                              5238.797778684383
1490                                              5269.77658650117
1500                                              5300.624467099273
1510                                              5331.341420478673
1520                                              5361.927446640914
1530                                              5392.3825455828555
1540                                              5422.7067173044825
1550                                              5453.01949311325
1560                                              5483.295444550822
1570                                              5513.464051838148
1580                                              5543.525314973656
1590                                              5573.479233954215
1600                                              5603.325808786053
1610                                              5633.06503946136
1620                                              5662.696925987929
1630                                              5692.221468359505
1640                                              5721.6386665792015
1650                                              5750.948520645448
1660                                              5780.151030556675
1670                                              5809.246196317556
1680                                              5838.23401792652
1690                                              5867.114495386682
1700                                              5895.887628687108
1710                                              5924.6248261233695
1720                                              5953.291972059926
1730                                              5981.8636282216685
1740                                              6010.339794603907
1750                                              6038.720471208197
1760                                              6067.005658040776
1770                                              6095.195355093835
1780                                              6123.28956236893
1790                                              6151.288279870738
1800                                              6179.19150759301
1810                                              6206.999245540424
1820                                              6234.711493708295
1830                                              6262.328252101297
1840                                              6289.849520720988
1850                                              6317.275299557999
1860                                              6344.605588624811
1870                                              6371.871178881561
1880                                              6399.051361445793
1890                                              6426.14045838408
1900                                              6453.138469693298
1910                                              6480.045395370321
1920                                              6506.86123542295
1930                                              6533.585989844939
1940                                              6560.2196586362825
1950                                              6586.762241798543
1960                                              6613.213739331713
1970                                              6639.574151238913
1980                                              6665.843477513898
1990                                              6692.021718161345
2000                                              6718.108873178131
2010                                              6744.104942565816
2020                                              6770.009926327515
2030                                              6795.831818532047
2040                                              6821.564049441071
2050                                              6847.206197587908
2060                                              6872.758262970993
2070                                              6898.220245591886
2080                                              6923.592145455265
2090                                              6948.873962551765
2100                                              6974.065696890747
2110                                              6999.1673484675275
2120                                              7024.178917280544
2130                                              7049.1004033329145
2140                                              7073.931806621516
2150                                              7098.67312715103
2160                                              7123.324364918332
2170                                              7147.88551992342
2180                                              7172.356675388684
2190                                              7196.739199721902
2200                                              7221.031821816693
2210                                              7245.234541666814
2220                                              7269.347359273822
2230                                              7293.370274642399
2240                                              7317.303287772542
2250                                              7341.146398658007
2260                                              7364.899607300352
2270                                              7388.56291370582
2280                                              7412.136317866604
2290                                              7435.619819788947
2300                                              7459.013419469724
2310                                              7482.317116904253
2320                                              7505.530912106578
2330                                              7528.654805061091
2340                                              7551.689718560256
2350                                              7574.639674707948
2360                                              7597.500409854965
2370                                              7620.271923993504
2380                                              7642.954217129805
2390                                              7665.547289262307
2400                                              7688.051140387885
2410                                              7710.465770511222
2420                                              7732.791179632316
2430                                              7755.027367744922
2440                                              7777.174334852161
2450                                              7799.232080960273
2460                                              7821.200606061456
2470                                              7843.079910158826
2480                                              7864.869993253947
2490                                              7886.57085533901
2500                                              7908.18629394664
2510                                              7929.7233705739445
2520                                              7951.172906191273
2530                                              7972.534900797062
2540                                              7993.809354395993
2550                                              8014.996266986504
2560                                              8036.095638567035
2570                                              8057.107469140703
2580                                              8078.031758701267
2590                                              8098.8685072534045
2600                                              8119.6177148018
2610                                              8140.279381332403
2620                                              8160.853506862383
2630                                              8181.34009137925
2640                                              8201.73913488613
2650                                              8222.050637384575
2660                                              8242.292652505084
2670                                              8262.479253864638
2680                                              8282.583993961189
2690                                              8302.606872799413
2700                                              8322.54789037307
2710                                              8342.407046689961
2720                                              8362.184341743841
2730                                              8381.879775539393
2740                                              8401.493348070373
2750                                              8421.02505934146
2760                                              8440.474909351095
2770                                              8459.842898100836
2780                                              8479.129025589122
2790                                              8498.333291819074
2800                                              8517.455696787569
2810                                              8536.496240491482
2820                                              8555.4549229355
2830                                              8574.331744118057
2840                                              8593.126704042274
2850                                              8611.83980270659
2860                                              8630.471040103204
2870                                              8649.020416246156
2880                                              8667.487931124522
2890                                              8685.873584739862
2900                                              8704.177377101541
2910                                              8722.39930819551
2920                                              8740.539378032696
2930                                              8758.597586606851
2940                                              8776.573933917976
2950                                              8794.468419970755
2960                                              8812.281044762063
2970                                              8830.01180829346
2980                                              8847.710733308795
2990                                              8865.363538941998
3000                                              8882.939527874307
3010                                              8900.438700115084
3020                                              8917.861055656527
3030                                              8935.206594500194
3040                                              8952.475316650765
3050                                              8969.667222102002
3060                                              8986.782310857021
3070                                              9003.8205829127
3080                                              9020.782038276842
3090                                              9037.666676940087
3100                                              9054.47449890711
3110                                              9071.205504176354
3120                                              9087.859692750939
3130                                              9104.437064624619
3140                                              9120.93761980676
3150                                              9137.361358287995
3160                                              9153.70828007457
3170                                              9169.97838516336
3180                                              9186.171673554365
3190                                              9202.288145249146
3200                                              9218.327800247702
3210                                              9234.290638550032
3220                                              9250.176660154573
3230                                              9265.985865059769
3240                                              9281.718253270297
3250                                              9297.373824781476
3260                                              9312.953971895251
3270                                              9328.577067058612
3280                                              9344.13152512976
3290                                              9359.617346107136
3300                                              9375.03452998918
3310                                              9390.383076782131
3320                                              9405.662986478188
3330                                              9420.874259078908
3340                                              9436.016894587416
3350                                              9451.090893002149
3360                                              9466.096254321545
3370                                              9481.032978550285
3380                                              9495.901065683689
3390                                              9510.700515724877
3400                                              9525.431328669165
3410                                              9540.093504522796
3420                                              9554.68704328109
3430                                              9569.211944945604
3440                                              9583.668209513218
3450                                              9598.055836993293
3460                                              9612.374827376469
3470                                              9626.625180664303
3480                                              9640.806896859916
3490                                              9654.919975961748
3500                                              9668.964417969799
3510                                              9682.940222885629
3520                                              9696.847390704555
3530                                              9710.68592143282
3540                                              9724.45581506574
3550                                              9738.20623680258
3560                                              9751.964144922693
3570                                              9765.661652281105
3580                                              9779.2987588825
3590                                              9792.87546472375
3600                                              9806.3917698033
3610                                              9819.84767412895
3620                                              9833.243177691338
3630                                              9846.578280495143
3640                                              9859.852982543487
3650                                              9873.067283827007
3660                                              9886.221184351944
3670                                              9899.314684121418
3680                                              9912.34778312919
3690                                              9925.320481379937
3700                                              9938.232778870539
3710                                              9951.084675599435
3720                                              9963.87617157287
3730                                              9976.607266783038
3740                                              9989.27796123618
3750                                              10001.888254932297
3760                                              10014.438147865147
3770                                              10026.92764004097
3780                                              10039.35673145821
3790                                              10051.725422113741
3800                                              10064.033712010685
3810                                              10076.281601150602
3820                                              10088.469089533493
3830                                              10100.596177151552
3840                                              10112.757704272575
3850                                              10124.888116008933
3860                                              10136.966077985104
3870                                              10148.991590210451
3880                                              10160.964652681856
3890                                              10172.885265400875
3900                                              10184.75342836283
3910                                              10196.5691415724
3920                                              10208.332405029587
3930                                              10220.043218731265
3940                                              10231.701582683681
3950                                              10243.307496877469
3960                                              10254.860961318871
3970                                              10266.361976011009
3980                                              10277.81054094452
3990                                              10289.206656125643
4000                                              10300.55032155438
4010                                              10311.841537229171
4020                                              10323.080303150015
4030                                              10334.26661931691
4040                                              10345.400485729859
4050                                              10356.48190239042
4060                                              10367.510869297032
4070                                              10378.487386448136
4080                                              10389.41145384529
4090                                              10400.28307149318
4100                                              10411.10223938556
4110                                              10421.868957523991
4120                                              10432.605390861348
4130                                              10443.376813276258
4140                                              10454.103087539102
4150                                              10464.784213649888
4160                                              10475.420191611727
4170                                              10486.011021419941
4180                                              10496.556703079215
4190                                              10507.057236586423
4200                                              10517.512621940008
4210                                              10527.922859146207
4220                                              10538.287948201905
4230                                              10548.607889102417
4240                                              10558.882681855544
4250                                              10569.112326456607
4260                                              10579.296822908726
4270                                              10589.436171205658
4280                                              10599.530371355208
4290                                              10609.579423351128
4300                                              10619.583327196546
4310                                              10629.542082888336
4320                                              10639.455690431181
4330                                              10649.324149826643
4340                                              10659.147461066917
4350                                              10668.925624156685