% Model:              Transitorio.mph
% Version:            COMSOL 6.2.0.290
% Date:               Mar 10 2025, 14:53
% Table:              Table 17 - 
% Time (s)                                        Temperature (degC), Point: (2.25, 0, 0)
0                                                 25.000000000000284
10                                                25.000000000000398
20                                                24.99999999999966
30                                                24.999999999015586
40                                                24.999999884529473
50                                                24.999998187836013
60                                                24.999986315431556
70                                                24.99992193622444
80                                                24.99970974402629
90                                                24.99920410334107
100                                               24.99818041952318
110                                               24.996351149044358
120                                               24.99338081244781
130                                               24.988909712171562
140                                               24.98246745053666
150                                               24.973752660429568
160                                               24.962556417505084
170                                               24.948735015597208
180                                               24.932085534584303
190                                               24.912467360526193
200                                               24.88981892138412
210                                               24.86407316705663
220                                               24.835263451574008
230                                               24.803384195823753
240                                               24.768544420072146
250                                               24.73077919701575
260                                               24.69025286296187
270                                               24.647021649516034
280                                               24.6014927639647
290                                               24.553780569271055
300                                               24.50377699901395
310                                               24.451482053193217
320                                               24.397543236767262
330                                               24.34184182515338
340                                               24.284211982507202
350                                               24.224653708828896
360                                               24.164066571674994
370                                               24.10223194759635
380                                               24.038952425427
390                                               23.974228005166992
400                                               23.908901300874845
410                                               23.84272064458014
420                                               23.775529977078634
430                                               23.707329298370155
440                                               23.638848115636904
450                                               23.569830600296143
460                                               23.500165029790878
470                                               23.429851404120654
480                                               23.35949204124995
490                                               23.28884636657483
500                                               23.217840257845353
510                                               23.14647371506169
520                                               23.075228218035477
530                                               23.00388942954504
540                                               22.932411721208496
550                                               22.860795093025672
560                                               22.78941569511153
570                                               22.718089890377314
580                                               22.646792061726387
590                                               22.57552220915869
600                                               22.504708185268782
610                                               22.434123756183226
620                                               22.363750554563012
630                                               22.29358858040814
640                                               22.223637833718442
650                                               22.1538983144942
660                                               22.084370022735186
670                                               22.01505430809425
680                                               21.94630002327517
690                                               21.87783549693978
700                                               21.809660729088137
710                                               21.741775719720124
720                                               21.674180468835857
730                                               21.60687497643511
740                                               21.539859242518276
750                                               21.473152521663337
760                                               21.40708109353494
770                                               21.341379914839308
780                                               21.276048985576267
790                                               21.21108830574576
800                                               21.146497875347904
810                                               21.082277694382583
820                                               21.01842776284991
830                                               20.95496866735982
840                                               20.892062632495993
850                                               20.829571184511394
860                                               20.7674943234058
870                                               20.705832049179264
880                                               20.644584361831846
890                                               20.583751261363545
900                                               20.523332747774305
910                                               20.463341782927444
920                                               20.403839348169868
930                                               20.34477021796573
940                                               20.28613439231509
950                                               20.227931871218118
960                                               20.170162654674698
970                                               20.11282674268466
980                                               20.055924135248233
990                                               19.99945798999329
1000                                              19.94343805212924
1010                                              19.887854837110808
1020                                              19.832708344938
1030                                              19.777998575610695
1040                                              19.72372552912907
1050                                              19.66988920549295
1060                                              19.61648960470245
1070                                              19.56352093910442
1080                                              19.5109710258929
1090                                              19.458852837854977
1100                                              19.40716637499071
1110                                              19.355911637300153
1120                                              19.305088624783252
1130                                              19.254697337440007
1140                                              19.204737775270416
1150                                              19.155196859617604
1160                                              19.106055674108973
1170                                              19.05733684154808
1180                                              19.00904036193492
1190                                              18.961166235269502
1200                                              18.913714461551876
1210                                              18.8666850407821
1220                                              18.820077972960007
1230                                              18.77385813408489
1240                                              18.727991325555593
1250                                              18.682525399799488
1260                                              18.637460356816632
1270                                              18.592796196606912
1280                                              18.54853291917044
1290                                              18.504670524507105
1300                                              18.461209012617076
1310                                              18.418148383500125
1320                                              18.37548863715648
1330                                              18.333229773586027
1340                                              18.29137179278871
1350                                              18.24991469476464
1360                                              18.208858479513765
1370                                              18.16820314703608
1380                                              18.127948697331647
1390                                              18.088020875878215
1400                                              18.04840714123071
1410                                              18.00917629066629
1420                                              17.97032832418506
1430                                              17.93186324178697
1440                                              17.893781043472075
1450                                              17.85608172924026
1460                                              17.818765299091638
1470                                              17.781831753026268
1480                                              17.745281091043807
1490                                              17.709113313144712
1500                                              17.67332841932864
1510                                              17.637926409595764
1520                                              17.602907283946138
1530                                              17.568271042379536
1540                                              17.534017684896128
1550                                              17.50001402831981
1560                                              17.466288405328555
1570                                              17.43291938989222
1580                                              17.399906982011032
1590                                              17.367251181684594
1600                                              17.33495198891319
1610                                              17.303009403696763
1620                                              17.271423426035426
1630                                              17.240194055928896
1640                                              17.209321293377343
1650                                              17.17880513838088
1660                                              17.14864559093928
1670                                              17.118842651052717
1680                                              17.089396318721185
1690                                              17.06030659394446
1700                                              17.031573476722883
1710                                              17.003030398075282
1720                                              16.974756937087193
1730                                              16.946812431802186
1740                                              16.919196882220263
1750                                              16.891910288341535
1760                                              16.864952650165776
1770                                              16.838323967693213
1780                                              16.81202424092379
1790                                              16.786053469857336
1800                                              16.76041165449402
1810                                              16.735098794833903
1820                                              16.71011489087681
1830                                              16.685459942622856
1840                                              16.661133950071985
1850                                              16.637136913224253
1860                                              16.613468832079548
1870                                              16.589933918896804
1880                                              16.566663853362
1890                                              16.543694739276702
1900                                              16.52102657664102
1910                                              16.49865936545484
1920                                              16.476593105718337
1930                                              16.454827797431335
1940                                              16.433363440594007
1950                                              16.412200035206183
1960                                              16.391337581267976
1970                                              16.370776078779272
1980                                              16.3505155277403
1990                                              16.330555928150773
2000                                              16.310897280010863
2010                                              16.29153958332057
2020                                              16.272482838079895
2030                                              16.253505923964667
2040                                              16.234790563633
2050                                              16.216348414919253
2060                                              16.198179477823544
2070                                              16.18028375234593
2080                                              16.162661238486237
2090                                              16.14531193624464
2100                                              16.128235845621077
2110                                              16.11143296661544
2120                                              16.094903299227894
2130                                              16.078646843458387
2140                                              16.06266359930686
2150                                              16.04695356677331
2160                                              16.031516745857914
2170                                              16.016353136560383
2180                                              16.001450301153852
2190                                              15.98660372749822
2200                                              15.972003386210645
2210                                              15.95764927729141
2220                                              15.94354140074023
2230                                              15.929679756557277
2240                                              15.916064344742438
2250                                              15.902695165295825
2260                                              15.889572218217438
2270                                              15.876695503507221
2280                                              15.864065021165004
2290                                              15.851680771191127
2300                                              15.839542753585476
2310                                              15.827650968347825
2320                                              15.816005415478571
2330                                              15.804606094977316
2340                                              15.793418033128944
2350                                              15.782288791888789
2360                                              15.771379964065375
2370                                              15.760691549658816
2380                                              15.750223548668998
2390                                              15.739975961096093
2400                                              15.729948786939929
2410                                              15.72014202620062
2420                                              15.710555678878109
2430                                              15.701189744972453
2440                                              15.692044224483539
2450                                              15.68311911741148
2460                                              15.674414423756218
2470                                              15.665930143517869
2480                                              15.657666276696261
2490                                              15.649622823291452
2500                                              15.641744716052017
2510                                              15.63392955739198
2520                                              15.626310450822643
2530                                              15.618887396344178
2540                                              15.611660393956527
2550                                              15.604629443659746
2560                                              15.59779454545378
2570                                              15.591155699338515
2580                                              15.584712905314234
2590                                              15.578466163380654
2600                                              15.572415473537944
2610                                              15.566560835785992
2620                                              15.560902250124911
2630                                              15.555439716554645
2640                                              15.550173235075192
2650                                              15.545102805686497
2660                                              15.540107914200235
2670                                              15.53509461436937
2680                                              15.530239452356568
2690                                              15.525542428161884
2700                                              15.521003541785376
2710                                              15.516622793226986
2720                                              15.512400182486829
2730                                              15.508335709564733
2740                                              15.504429374460756
2750                                              15.50068117717501
2760                                              15.497091117707384
2770                                              15.493659196057934
2780                                              15.490385412226601
2790                                              15.487269766213387
2800                                              15.484312258018349
2810                                              15.48151288764143
2820                                              15.478871655082798
2830                                              15.476388560342116
2840                                              15.474063603419665
2850                                              15.47189678431539
2860                                              15.469888103029291
2870                                              15.468037559561253
2880                                              15.466345153911334
2890                                              15.464810886079647
2900                                              15.463434756066022
2910                                              15.462216763870572
2920                                              15.461156909493411
2930                                              15.460255192934198
2940                                              15.459511614193275
2950                                              15.458926173270413
2960                                              15.458498870165727
2970                                              15.458229704879216
2980                                              15.45790003574075
2990                                              15.457572282204126
3000                                              15.45738061747744
3010                                              15.457325041560864
3020                                              15.45740555445434
3030                                              15.457622156157925
3040                                              15.457974846671448
3050                                              15.45846362599508
3060                                              15.459088494128707
3070                                              15.459849451072387
3080                                              15.460746496826175
3090                                              15.461779631389959
3100                                              15.462948854763738
3110                                              15.464254166947626
3120                                              15.46569556794151
3130                                              15.467273057745501
3140                                              15.468986636359489
3150                                              15.470836303783528
3160                                              15.47282206001762
3170                                              15.474943905061764
3180                                              15.47720183891596
3190                                              15.479595861580151
3200                                              15.482125973054394
3210                                              15.484792173338747
3220                                              15.48759446243298
3230                                              15.490532840337437
3240                                              15.493607307051832
3250                                              15.496817862576393
3260                                              15.500159272382177
3270                                              15.503186497638012
3280                                              15.5063190592723
3290                                              15.509556957285042
3300                                              15.512900191676067
3310                                              15.516348762445375
3320                                              15.51990266959325
3330                                              15.523561913119352
3340                                              15.527326493023907
3350                                              15.531196409306744
3360                                              15.535171661968036
3370                                              15.539252251007667
3380                                              15.543438176425752
3390                                              15.54772943822212
3400                                              15.552126036396885
3410                                              15.556627970950046
3420                                              15.561235241881548
3430                                              15.565947849191389
3440                                              15.57076579287974
3450                                              15.575689072946375
3460                                              15.580717689391406
3470                                              15.585851642214834
3480                                              15.591090931416545
3490                                              15.596435556996767
3500                                              15.601885518955214
3510                                              15.607440817292115
3520                                              15.61310145200747
3530                                              15.618867423101051
3540                                              15.624738730573142
3550                                              15.630565095465158
3560                                              15.636264116779728
3570                                              15.642043299189993
3580                                              15.647902642696181
3590                                              15.653842147298121
3600                                              15.659861812995985
3610                                              15.6659616397896
3620                                              15.672141627679082
3630                                              15.678401776664373
3640                                              15.68474208674553
3650                                              15.691162557922496
3660                                              15.697663190195271
3670                                              15.704243983563856
3680                                              15.710904938028364
3690                                              15.717646053588624
3700                                              15.72446733024475
3710                                              15.731368767996742
3720                                              15.738350366844543
3730                                              15.745412126788096
3740                                              15.752554047827573
3750                                              15.759776129962916
3760                                              15.767078373193954
3770                                              15.774460777520915
3780                                              15.781923342943742
3790                                              15.789466069462378
3800                                              15.797088957076767
3810                                              15.804792005787078
3820                                              15.812575215593142
3830                                              15.820438586495072
3840                                              15.828134983448024
3850                                              15.835835229597535
3860                                              15.843594918088286
3870                                              15.851414048920276
3880                                              15.859292622093562
3890                                              15.867230637608031
3900                                              15.875228095463854
3910                                              15.883284995660915
3920                                              15.89140133819933
3930                                              15.899577123078927
3940                                              15.907812350299764
3950                                              15.916107019861954
3960                                              15.92446113176544
3970                                              15.93287468601011
3980                                              15.941347682596074
3990                                              15.949880121523279
4000                                              15.95847200279178
4010                                              15.96712332640152
4020                                              15.975834092352613
4030                                              15.984604300644946
4040                                              15.993433951278462
4050                                              16.00232304425333
4060                                              16.01127157956938
4070                                              16.020279557226786
4080                                              16.02934697722543
4090                                              16.03847383956537
4100                                              16.047660144246493
4110                                              16.05690589126897
4120                                              16.0661600513572
4130                                              16.075272347683438
4140                                              16.084427276231793
4150                                              16.093624837002324
4160                                              16.10286502999503
4170                                              16.1121478552098
4180                                              16.12147331264663
4190                                              16.130841402305634
4200                                              16.140252124186873
4210                                              16.149705478290116
4220                                              16.159201464615535
4230                                              16.16874008316313
4240                                              16.178321333932843
4250                                              16.187945216924618
4260                                              16.197611732138625
4270                                              16.207320879574638
4280                                              16.217072659232883
4290                                              16.226867071113247
4300                                              16.23670411521573
4310                                              16.246583791540388
4320                                              16.256506100086938